#BIOSYM hessian 1
@Type: Hessian Update
@Units
 distance: 	A
 energy: 	Kcal/Mol
#header
@natom 20

#label
A1      A2      A3      A4      A5      A6      A7      A8      A9      A10     A11     A12     A13     A14     A15     A16     A17     A18     A19     A20

#element
Au Au Au Au Au Au Au Au Au Au Au Au Au Au Au Au Au Au Au Au

#matrix
60
 2.732943005519E+03
 2.983522304769E+02 1.019077926841E+03
 6.317442180921E+02 -3.769034366125E+02 1.344492795115E+03
 -9.604244620271E+00 3.816660880544E+00 5.307879257692E-01 1.699224826905E+03
 -1.395653379515E+00 -1.333037661587E+00 1.811247625076E+00 -7.616557968132E+02 1.580999327954E+03
 -1.641776663053E-02 -1.760057532149E+01 -1.415877943943E+01 9.755561824014E+01 4.618750537453E+02 2.833857510531E+03
 -2.440822150404E+01 -1.714333376258E+00 1.243250990125E+01 6.820334139143E+00 1.620920756455E+01 -1.705086563209E+01 2.162993981374E+03
 7.638730726765E+00 -1.499647426008E+01 -2.866822848928E+00 -1.247049324272E+01 1.554660131183E+01 -4.309551308426E+01 5.315828168083E+02 1.066452197227E+03
 -1.380952208756E+01 2.033520830114E-01 2.921418914196E+00 -1.142832390198E+01 -2.618699133777E+01 1.114599837772E+02 6.481863069764E+01 7.842721304354E+02 2.467724869194E+03
 -1.567745289750E+02 -6.046495637306E+00 -3.309566261950E+02 -7.132100298946E+00 5.205363984289E+00 8.013710011670E+00 -7.973443393535E+00 3.483949503043E+00 -1.885792791524E+01 6.694783679742E+02
 -4.348791247487E+00 2.439252976147E+00 3.902840931961E+01 4.434232159043E+00 -4.079910664213E+00 -6.287226480482E+00 -1.208558785012E+00 -1.019709953373E+01 -2.941025538752E+00 -5.318449160399E+02 6.760376570365E+02
 -2.582009219813E+02 3.668553137945E+01 -1.021719288820E+03 -1.950720294008E+00 -7.843213051148E-01 -1.277189626969E+01 -4.610967530662E+00 -9.168283701617E+00 -1.114383603780E+01 3.300244702526E+02 9.306070986680E-01 2.182571396364E+03
 -2.686815472051E+00 7.299838283577E+00 -1.331597749743E+01 -1.130804058106E+01 2.944536518211E-01 1.582978770590E+01 -9.906251860883E+02 -2.861726224535E+02 2.855224803543E+01 5.619496735976E+00 -4.265640012378E+00 8.007474267219E-01 1.038173258957E+03
 4.874530213454E+00 -1.992626956614E+01 -1.477371589913E+01 -6.297073400049E+00 -5.492793018201E+00 2.091770022055E+01 -2.608022204714E+02 -2.242515661170E+02 -2.609683941003E+02 5.816408556043E+00 -8.991733229064E+00 -1.747811839416E+01 2.599991056047E+02 2.381415662511E+02
 -3.271257929006E+01 -1.473604273958E+00 3.160131962131E+01 3.268721796430E+00 3.417476880519E+00 -8.165699262479E+00 4.195011334565E+01 -1.968683573375E+02 -1.021445463895E+03 -8.858638590772E+00 1.497162488589E+00 -5.356527885566E+00 2.752861737202E+02 1.685246522438E+02 1.765441948929E+03
 3.367243761592E+01 1.023986088625E+02 -1.492607839633E+02 -1.557682994914E+01 7.238939999189E+01 -3.515833432373E+01 1.098924525534E+03 -2.519368593343E+03 -6.324986106159E+02 2.212874034013E+02 -9.671814850807E+01 4.142459620007E+01 -3.583015558589E+02 1.332557595767E+02 -4.844716808849E+01 7.898159437930E+05
 -6.812672291144E+01 -1.252276726828E+02 1.997733843193E+02 8.961426012125E+00 -6.472651091296E+01 1.421123037327E+01 -1.028917365788E+03 2.361453422157E+03 6.009809317324E+02 -2.284255418850E+02 9.612992583482E+01 -6.099602983441E+01 2.924643879594E+02 -1.326651426433E+02 9.900925368643E+01 -7.385725997677E+05 6.922309892743E+05
 1.012655608508E+02 9.327267109707E+01 -1.978602884797E+02 -4.193021159225E+00 3.787134905640E+01 -2.648042203254E+01 6.902636120152E+02 -1.650398678121E+03 -4.070462723123E+02 1.861522734289E+02 -6.525233264548E+01 3.132162353953E+01 -2.113171176144E+02 9.627130289537E+01 -8.597555962157E+01 5.140148480491E+05 -4.819850640579E+05 3.359698916589E+05
 -2.076304563391E+02 -2.439224038808E+02 4.128320229653E+02 -3.139487663648E+00 -1.252453364634E+02 3.918836964797E+01 -2.114048670799E+03 4.996934990454E+03 1.191593056658E+03 -5.284898743051E+02 1.997080237903E+02 -1.190895502222E+02 6.568746568270E+02 -2.606069733928E+02 1.699035820861E+02 -1.555390298579E+06 1.455620623003E+06 -1.013299531401E+06 3.065156658541E+06
 1.928162070412E+02 2.222166393384E+02 -3.729659613924E+02 -1.718913980544E+01 1.252375021750E+02 -5.030319965918E+01 1.965104462961E+03 -4.645091020293E+03 -1.068899024183E+03 4.935208526752E+02 -1.894133474270E+02 1.064786351097E+02 -5.595914160796E+02 2.501471140258E+02 -1.964945096360E+02 1.454324931990E+06 -1.362342166645E+06 9.486866771413E+05 -2.865805706516E+06 2.682186685939E+06
 -1.530439526978E+02 -1.578698996248E+02 2.623409799160E+02 5.835443553437E+00 -8.357584536350E+01 2.095156234055E+01 -1.388894428656E+03 3.249573205617E+03 8.185143269883E+02 -3.460723909637E+02 1.345593495729E+02 -8.651242513658E+01 4.421048931823E+02 -1.708923712860E+02 1.083018041459E+02 -1.011614557698E+06 9.479803953868E+05 -6.602072212344E+05 1.993500886380E+06 -1.866312820587E+06 1.298957486243E+06
 -9.622589030670E+00 3.126419529256E+00 4.111730418851E+00 -6.769676011364E+02 5.068186335043E+02 -4.402667038511E+01 -9.181913907063E+01 -8.254333277427E+01 -2.268151147013E+01 -1.219193437473E+01 7.879375030348E+00 -1.095683259838E+00 9.920250039186E+00 -2.710273396880E+00 -9.434208153880E+00 -2.136325809459E+02 1.832474226675E+02 -1.349203317874E+02 4.149420907552E+02 -3.866821656186E+02 2.672492148337E+02 2.295725834115E+03
 2.571523048952E+01 7.396107662803E+00 -2.560347152492E+01 5.158806856387E+02 -5.169111170045E+02 5.195509451346E+01 -1.044045733221E+02 -7.210171912746E+02 -4.268231067022E+02 2.858326883094E+01 -1.023382618064E+01 1.334493898341E+01 3.410324364431E+01 2.758189641986E+01 -3.162510786508E+01 -1.038952019829E+02 5.573697053752E+01 -4.000836623715E+01 1.529004551186E+02 -1.501553918857E+02 9.063664313187E+01 -4.819281942690E+01 1.481119403202E+03
 -5.181881571442E+00 -1.176421489851E+01 -1.686440510400E+01 -1.386599972370E+01 1.644061634168E+01 -1.364637861743E+03 -3.679284226507E+01 -4.250922942306E+02 -5.428978902580E+02 2.519729341703E-01 -4.545902200653E+00 -7.594843304016E+00 2.806183420933E+01 -3.381078862705E+01 4.055696355068E+01 -3.377354058224E+02 3.145401182335E+02 -2.120934898632E+02 5.997664712708E+02 -5.784503014564E+02 4.051971787326E+02 -2.141756544964E+02 3.312682044386E+02 2.425992590599E+03
 1.014053307191E+02 1.241554416498E+02 -2.122098387947E+02 -3.198737828077E+00 6.611070259035E+01 -2.729099582754E+01 -1.257636844724E+01 -2.601582840345E+03 -6.128036471044E+02 2.527999407322E+02 -1.018626997072E+02 6.326671018597E+01 -1.621082790703E+02 9.051179331796E+01 -3.103384919874E+02 7.645782717759E+05 -7.159858537937E+05 4.985365094652E+05 -1.507274108503E+06 1.409266463378E+06 -9.802835626193E+05 -2.098015336503E+02 -8.222710406285E+01 -2.874539719321E+02 7.424744647064E+05
 -9.093143516763E+01 -1.206257230346E+02 2.039372252651E+02 -2.071591031019E+01 -4.825777113208E+01 1.698713952272E+01 -1.091373624807E+03 2.211261557518E+03 3.494254870266E+02 -2.358815564799E+02 9.187931303377E+01 -5.655327681342E+01 2.618495811157E+02 -9.429568629401E+01 1.435370866013E+02 -7.140435454739E+05 6.686792670328E+05 -4.656100702088E+05 1.406823702732E+06 -1.316655876714E+06 9.161635402179E+05 1.849213736183E+02 6.930708204468E+01 3.032297784136E+02 -6.914772049300E+05 6.465737518875E+05
 3.232477326002E+01 8.354937149572E+01 -1.370818860292E+02 -4.728314090802E+00 3.834295191373E+01 -8.785633603802E+00 6.500863080940E+02 -1.732210153363E+03 -1.355391795065E+03 1.629835952589E+02 -6.256086301749E+01 2.978249081461E+01 -4.043785314950E+02 1.458802475933E+02 3.279201277967E+02 4.987284956520E+05 -4.670569821625E+05 3.251942820129E+05 -9.823647504032E+05 9.196757942786E+05 -6.401007220152E+05 -1.181651061728E+02 -3.502124019757E+01 -2.180713545004E+02 4.830746798138E+05 -4.514560726114E+05 3.162968665512E+05
 2.798097598668E+01 -9.188183220767E+00 -2.297648641714E+01 -2.090295041310E+01 -4.785796409100E+00 -1.006372339344E+00 -1.765068641174E+01 3.066270366667E+00 1.058831700973E+01 -9.402440825979E+02 9.752574513384E+02 -5.179062682514E+00 9.207342977599E-01 2.804496823418E+01 -4.564890151546E+01 2.389732422931E+02 -2.685688461449E+02 2.190738047398E+02 -5.097386866057E+02 5.405898027505E+02 -3.493140566099E+02 3.504121280370E+01 1.462313563134E+01 -1.667383150611E+01 2.713809899958E+02 -2.390624108951E+02 1.854326541283E+02 1.944012104177E+03
 1.188831086957E+01 1.079639788728E+01 -2.360349750921E+01 1.773259524009E+01 4.365287437841E+00 1.417537056016E+01 -3.683269291729E+00 -4.839139934194E+00 -3.297850064991E+00 1.029905738783E+03 -1.174376496154E+03 -4.977996684944E+01 5.943727482119E+00 5.279059006902E+00 -1.239858955380E+01 2.673329830119E+02 -3.009010577032E+02 2.192589913356E+02 -5.896333355130E+02 5.318778871497E+02 -3.840077490115E+02 -8.491611557030E-01 8.558639153703E-01 7.610495602500E+00 2.843022604824E+02 -2.820088739315E+02 1.933354091587E+02 -1.974833105273E+03 2.370862935930E+03
 1.986125035604E+01 1.773953416391E+01 9.762267692686E+00 -2.183132464081E+00 4.551347687428E-01 -8.925118690685E+00 -7.684682452307E+00 -8.615458795097E+00 -1.194472606154E+01 -1.908043005179E+01 -3.392336519854E+01 -1.104508653764E+03 3.558635801153E+00 -8.576266837552E+00 -1.469547806429E+01 8.081503212768E+01 -9.172892317103E+01 6.124758050106E+01 -1.667210372454E+02 1.765763698760E+02 -1.243735472162E+02 1.063315702995E+01 7.048450788921E+00 -1.617283413045E+01 8.806818026321E+01 -7.865236074477E+01 4.814298367823E+01 -1.066678505703E+01 2.662452122744E+01 2.261830873914E+03
 -2.303550132566E+00 4.483776413492E+00 -1.445420470454E+01 -6.922040046170E+01 -1.698620109286E+02 -3.861980103650E+01 -2.543154171895E+00 1.394051133915E+01 1.017912721593E+00 4.633037232395E+00 6.990137969378E-01 -3.996674994270E+00 1.345373078872E+00 -6.231370330016E+00 -9.237601467960E-01 2.110199538655E+00 -1.458805486382E+01 2.100491204084E+01 -7.083962237988E+01 4.681829269911E+01 -3.340571120178E+01 -1.044133019567E+03 -1.597199092779E+02 -9.110088732446E+01 3.130860327118E+01 -3.636706589548E+01 2.113088654287E+01 1.927483670178E+00 1.361438692783E+01 -6.778418035992E-01 2.004342848325E+03
 -8.379607512639E+00 -1.044946315564E+01 5.539106836236E+00 -1.435746307174E+02 -7.966629086727E+02 -4.817557194140E+02 5.721714938047E+00 -1.792499987958E+01 -1.509973503781E+01 -1.179852582790E+01 -5.496361588269E+00 -1.027116400736E+01 -4.454720287516E+00 2.695155975580E+00 -5.207999457829E-01 -1.613539747056E+01 2.303341130755E+01 -2.863208447934E+01 7.525675270474E+01 -5.506361570235E+01 4.561698033641E+01 -1.835282894955E+02 -7.197557383229E+01 -1.297820650376E+01 -3.189582414763E+01 3.976638288578E+01 -1.874723430842E+01 -1.113679867387E+01 -8.274710460729E+00 -1.172810082586E+01 7.198583354100E+02 1.221202070773E+03
 -2.030255356262E+01 -1.449961459589E+01 1.905213887625E+01 -5.732099442524E+01 -4.281206402647E+02 -4.565713027501E+02 -1.447938592071E+00 -3.081768251588E+01 1.460221987529E+01 -1.964631471939E+01 -6.797628256763E-01 -7.235290496910E+00 -1.964144607658E+01 1.786967154053E+01 -7.477247990643E+00 2.084442545447E+02 -1.921379408188E+02 9.865081170429E+01 -3.540501951132E+02 3.482884438278E+02 -2.352902920464E+02 -4.358145854045E+01 -8.494546664956E+01 -9.491491795259E+02 1.725935875513E+02 -1.666694364265E+02 1.336930641474E+02 2.255909474757E+01 -1.712391593732E+01 -9.753011931260E+00 1.126633790722E+02 6.220978335413E+02 2.422016199912E+03
 -2.819716175889E+01 -6.365823635851E+00 1.743222809193E+00 9.698361474260E+00 -4.904641353256E+00 3.823383376105E+01 -6.680652880331E+00 -7.063966962902E+00 -6.491068309371E+00 8.570447697355E-01 1.097672217475E+01 -2.741094261016E+00 -6.462237450100E+00 7.692649853354E-01 -5.969367517090E+00 -2.432127390254E+02 2.406208087431E+02 -1.673845129031E+02 4.819941348940E+02 -4.504501399883E+02 3.134918487302E+02 -5.699356194314E+02 -2.483009806661E+02 4.698960700147E+02 -2.409058182132E+02 2.129198520907E+02 -1.616512392429E+02 -1.122256273991E+01 8.038758490752E+00 6.279030469116E+00 6.369795840358E+00 1.357356491692E+01 -3.016825723011E+01 1.413926031773E+03
 -6.070808867794E+01 2.575950227061E+00 1.014504561415E+01 -1.617268220405E+01 -1.271514186760E+01 3.671839133257E+01 5.121175483669E+00 1.549578362656E+00 -4.475998656117E+01 -3.195919922837E-01 -6.303840891407E+00 4.430218935030E+00 -2.300388529881E+01 6.516159497671E-02 5.358448187078E+00 7.283989350351E+02 -7.048423983993E+02 4.599251275385E+02 -1.369946443165E+03 1.307355574770E+03 -8.929398763943E+02 -2.022268651025E+02 -1.628633441788E+02 1.518761394418E+02 6.831494194821E+02 -6.278216593581E+02 4.589171302680E+02 2.294669521235E+00 9.250834388762E-01 2.777113640913E+00 -2.666897351300E+01 -1.083316787840E+01 4.063566614794E+01 -2.434329868970E+02 5.741101105778E+02
 -7.253059316051E+01 -1.382536518802E+01 -2.245985424011E+01 3.204296073089E+00 -7.748299807614E+00 5.317023319480E+01 3.144074885820E+00 8.845581201982E+00 6.254176764174E+00 1.803190605937E+00 -5.205519920282E+00 -7.013178898579E-01 1.207972963013E+01 4.763665435087E+00 -6.696537430155E+00 -1.798088294829E+02 1.481668513065E+02 -1.103830822222E+02 3.050623403196E+02 -2.962109282355E+02 1.983605557092E+02 4.529034427223E+02 1.855414655034E+02 -5.496748606432E+02 -1.549778635209E+02 1.412278907336E+02 -9.263478972835E+01 7.310111536309E+00 -2.003436779261E+00 -4.700653697030E+00 4.152520173103E+00 1.683701710912E+01 -5.931808132868E+00 -4.814047396371E+02 -1.664956410932E+02 6.362057372034E+02
 -2.214255566091E+01 3.703707953583E-01 1.839791560262E+01 -6.252184101605E+00 3.467303956168E+00 -1.332410656619E+01 3.147720042804E+01 7.000708212837E+00 -1.586245652921E+00 6.300910385561E+00 1.199066215795E+01 1.196962058829E+01 -5.748227154368E+01 -2.232356253120E+01 -5.945160125235E+01 -4.882504185370E+02 5.017373985936E+02 -4.161765864784E+02 9.664310956224E+02 -1.002060038804E+03 6.460541486460E+02 -6.024313823149E+01 -4.166598250681E-01 1.940078213689E+01 -5.173607683483E+02 4.994090629363E+02 -3.160205622404E+02 -1.286734240875E+02 -1.542184134057E+00 -2.730744206490E+01 -1.294336235847E+01 1.899348973384E+01 -4.233337565587E+00 -6.244358073355E+00 -2.068480105937E+00 2.830498310852E+00 2.535559960138E+02
 1.334938724943E+01 -8.294954531518E+00 -1.003636038673E+01 1.823632962870E+00 -2.005231396644E+00 -1.785336909271E-01 -5.138251055599E+01 1.137764237320E+01 8.033651173745E+01 1.332366798299E+01 -2.938175178759E+00 -4.787093021920E+00 -6.295813499926E+00 -1.128933351104E+01 1.312346814772E+01 -6.429555522975E+01 8.323853020022E+01 -2.770933261319E+01 7.061990249382E+01 -9.421824461770E+01 6.121957810247E+01 -1.134074889952E+01 -1.306531185655E+01 1.255855419579E+01 -3.165134023539E+01 3.298772657149E+01 -7.639825737500E+01 -7.192461371260E+00 1.304008781002E-01 -1.031153438248E+01 9.075456351031E-01 2.776020262138E+00 7.668287859609E-01 5.411813427438E-02 -5.646366486426E+00 1.018114689336E+00 1.534950235129E+01 4.702290468073E+01
 2.265166425505E+01 1.479846635657E+01 -1.724609401039E+01 3.825746727404E+00 1.717520179507E+00 -2.254739853059E+01 -1.562999691762E+00 9.795231114806E+00 2.975862639411E+01 1.792782826134E+01 -1.980826592123E+00 1.676084056257E+01 -1.053645600609E+02 2.806546728240E+01 -1.099697668462E+03 -1.044241038238E+02 8.551234940271E+01 -2.492052615657E+01 1.211061965295E+02 -1.369937323463E+02 8.818808140301E+01 -2.395488883211E+01 -7.301518025281E+00 1.648548728549E+00 -5.502657621123E+01 4.841463781159E+01 -5.395623446301E+01 9.088402514619E+00 2.061174821122E+00 9.759402908004E+00 3.317905659451E-01 1.237523233616E+01 -3.408121774420E+00 -3.674783634604E+00 5.264509956377E+00 1.404369284061E+00 1.129383354829E+02 -4.294616602981E+01 1.098019688088E+03
 3.159494866310E+00 -2.466596309724E+00 2.850459050113E+00 -6.606574625617E-01 -1.651627948689E+00 2.351926905040E+00 -2.367527844967E+00 1.349675705279E+00 2.798769056172E+00 6.529723090471E-01 3.786502676939E+00 -1.540962490764E+00 -5.842150316784E+00 2.569496271163E+00 1.353887239818E+00 -5.806815652119E+01 6.319534291235E+01 -4.171912098169E+01 9.960595924837E+01 -9.460210794443E+01 6.597596494361E+01 -5.076216766692E+00 -3.900375085583E+00 1.073238488916E+01 -5.460571609430E+01 4.845115718007E+01 -3.592184024725E+01 -4.375133786946E+00 -3.767620850576E+00 1.213471736977E+00 6.111812767685E+00 -7.633922337790E+00 -1.076907515346E+00 2.255517478684E+00 -3.184044152475E+00 3.161024289292E-01 -4.743076910980E+00 3.842263929709E+00 -2.295489654210E+00 6.508797948301E+01
 -1.310219094646E+01 5.307135971920E+00 4.633933345096E+00 5.678680844565E+00 -7.750949289139E+00 8.696309966149E+00 1.313007586222E+00 -1.414727948012E+01 -6.609965015459E+00 -6.695043026710E+00 -3.203102000175E+01 1.507473317443E+01 -1.665002415820E+00 -9.483835673445E+00 -8.834606217667E-02 -3.665136052668E+01 2.277822618465E+01 -4.168862592135E+01 9.204801820033E+01 -9.066133022073E+01 5.195907568367E+01 1.818586172983E+01 7.464988782477E+00 -2.205118878895E+01 -3.282665080644E+01 2.247161870016E+01 -2.611733628291E+01 -6.315416103817E+00 -9.338990994468E+00 -7.846505779206E+00 -1.591965147954E+01 -5.438316020870E+00 3.595229232705E+01 -1.000502200220E+01 4.775158646242E-01 5.326410731395E+00 -1.367215688935E+00 -7.420180669569E+00 1.209397356791E+01 -8.977690522141E+01 9.349330470389E+02
 1.798022564191E+01 4.026662296686E+00 -2.812430431604E+00 1.516868004754E+00 6.951740909055E+00 -2.388791925356E+01 -8.475111125768E-02 1.037960341324E+01 9.811896039328E+00 9.144890609063E+00 8.621701500475E+00 9.734606583385E+00 7.329435990270E+00 -4.941296400097E+00 1.171304241908E+00 -2.218704362621E+01 8.866097149919E+00 -1.558759060272E+01 1.284985463748E+01 -2.281260139586E+01 -2.482363645160E+00 -1.215800265814E+01 -1.196156361548E+01 -6.376925639556E+00 -7.087006990761E+00 8.161315149968E+00 -2.302370502835E+01 2.353139167870E+00 1.578103233730E+00 1.364298377205E+01 -7.571435519147E+00 1.031420311563E+01 1.483510281959E+01 6.176747056868E+00 5.721365931628E+00 -2.328761307269E+00 -7.574613960346E+00 -4.352277445672E+00 -1.420679602776E+01 -3.197438697708E+01 -4.939771829675E+02 1.402291310443E+03
 -5.137856653158E+03 -6.956465043439E+02 -7.124340472319E+02 -7.519130025310E+00 -1.322295857774E+01 -2.842291658397E+01 -9.485672534096E+00 1.506297802275E+00 -6.662353353887E+00 1.871512318280E+02 -2.045533168122E+01 -3.721028976955E+01 -1.601895476829E+01 9.714149879323E+00 -2.399221108585E+00 2.815293566499E+02 -2.690818420736E+02 1.867642487859E+02 -5.653769732164E+02 5.279790257593E+02 -3.835547473975E+02 9.506774003816E-01 3.565692434981E+00 -1.689370956356E+01 2.717301920468E+02 -2.663397799089E+02 1.636319006332E+02 2.049507516446E+00 2.926312005872E+00 9.116825951271E+00 -3.910126632065E+00 3.615355468673E+00 1.687529048548E+00 6.091822078275E+01 8.547985614053E+01 1.513232876321E+02 -1.706624222979E+01 4.436250146604E+00 -3.371887950503E+00 1.079880481508E+00 4.369512165467E+00 4.778071685089E+00 1.079126276498E+04
 9.607913650557E+02 -7.623955318156E+02 5.410805311706E+02 6.445325318341E+01 9.114248005201E+01 1.293117800944E+02 -3.066367200062E+00 -1.481254182454E+01 8.115699694556E+00 1.219910815986E+00 -1.803556763170E+01 1.978879062449E+01 8.554216439556E+00 -2.280394753157E+01 -2.975201973049E-01 -3.016665005030E+02 2.877389447788E+02 -1.946249930828E+02 5.715380830651E+02 -5.466300023161E+02 3.675590326174E+02 -2.222284802520E+00 -1.084905527042E+00 2.983271245272E+00 -2.734213464154E+02 2.545676395228E+02 -1.883619864805E+02 1.527449652924E+01 -2.165143328663E+01 7.345315898128E+00 9.586358962845E+00 -1.415399134553E+01 -6.314296586690E+00 8.198127268589E-01 1.526090659579E+00 1.224659073242E+01 1.432437673962E+01 -5.242484817071E+00 1.837594970843E+01 -5.789215447239E-01 2.407960612188E+01 1.310081816536E+00 -3.255749017866E+03 1.080024406358E+04
 2.185655549110E+03 7.665931424522E+02 7.357407450221E+01 1.009410292925E+02 1.570946050006E+02 2.652100968568E+02 -1.502050117133E+01 -6.435993861709E+00 -9.929235761833E+00 3.533872161007E+01 -1.248040975981E+01 -6.825662111361E+00 9.646986761622E+00 -1.317397800313E+01 -2.988769601378E+01 -4.704679101932E+02 4.310492286951E+02 -2.778078800223E+02 8.522991184567E+02 -8.024001440412E+02 5.460716693362E+02 -3.985260768182E+00 1.710973793971E+01 1.928621570126E+01 -4.037207115333E+02 3.881105590068E+02 -2.901807996670E+02 3.137705116091E+00 -9.522887596705E+00 5.096802028918E+00 1.019405474102E+01 -2.047864384652E+01 -2.201454530833E+01 -4.402017812721E+00 -2.852549021174E+01 7.621228397422E+00 1.233139875253E+00 2.305639494585E-01 2.806011292471E+01 1.365966934325E+00 7.926866770112E+00 1.356863429049E+01 -6.703945893470E+03 1.513632184143E+04 2.918428181801E+04
 -2.393579466365E+02 -2.959715597079E+01 -3.211813436571E+01 -9.177162172607E+02 4.019102361158E+02 -2.872472302203E+01 -1.743540392280E+00 -1.531671282622E+01 -5.306766739735E+00 -1.365666964293E+01 1.084396778788E+01 -7.223094659537E-01 -1.352130133615E+01 -1.694009070154E+00 2.943631173932E+00 -7.402548397270E+00 -9.143253348490E+00 2.951129798564E+00 -1.950202220702E+01 -5.341358761838E+00 -8.831797581802E+00 2.202725801762E+01 -1.746489115135E+01 5.899698461992E+01 1.456669501389E+00 -3.573247854123E+01 2.369437862506E+00 -1.355826779535E+01 1.085062547351E+01 7.186673331457E-02 1.437511958539E+01 4.611668699212E+00 -7.196683296128E-02 2.250281280345E+01 1.930147729818E+01 3.574867457428E-01 -1.196104853933E+01 6.679714838277E-01 -4.438954176756E-01 1.602914879111E+01 9.153666192640E+00 -1.167250162408E+00 6.858125351928E+02 -1.420392671503E+03 -2.560931564243E+03 1.301411309614E+03
 1.619345457596E+03 2.598457874564E+02 2.127616425416E+02 4.442693501074E+02 -1.849153539615E+02 1.541437771570E+02 -6.769148364555E+00 -7.425788449593E+00 8.498547353980E+00 1.012464344130E+00 -3.538572602868E+00 9.090312637516E+00 1.382978233751E+01 -1.271310109289E+01 -1.373704572418E+01 -2.119891017221E+02 1.845169535058E+02 -1.089648924948E+02 3.560310845041E+02 -3.526407011333E+02 2.313673833404E+02 6.130840633358E-01 1.442910028210E+01 -3.460436098936E+01 -1.675467543737E+02 1.527671742883E+02 -1.232673585531E+02 -1.190745666532E+01 1.757817336084E+01 2.850430283305E+00 2.372427609505E+01 -6.735892694448E+00 -1.503523834820E+01 7.845307164156E+00 -1.281934668801E+01 2.152476891604E+01 1.570060162572E+00 -2.664191474067E+00 1.227043853438E+01 -1.143964142585E+00 3.916956754334E+00 -6.854206319779E+00 -4.573183650544E+03 9.097228255353E+03 1.636341371405E+04 -1.800291735507E+03 1.130189012242E+04
 2.858264519085E+03 4.168785196264E+02 3.610579615604E+02 8.851695562306E+01 1.748355637084E+02 -1.031272656351E+03 -6.087313329664E+00 2.585354729791E+01 -3.599439144113E+01 -2.490428494038E+00 -1.515705794873E+01 -1.731944213750E+00 9.832195703511E+00 7.099290875889E+00 -3.392568211432E+01 -5.337676856510E+02 4.926255846576E+02 -3.189087350696E+02 9.695191749900E+02 -9.291041742143E+02 6.171708637161E+02 4.614843463466E+01 -5.821126778405E+01 7.293875360348E+02 -4.643165118942E+02 4.434557478787E+02 -3.390064521579E+02 1.387097949116E+01 -1.054080364133E+01 -1.388724286690E+01 9.717566730079E+00 1.022889088793E+00 -2.128090629169E+00 -2.055868871213E+01 -4.409073529559E+01 1.207577423077E+01 1.519719252362E+01 1.064303143503E+01 1.552288739168E+01 -3.075127225832E+00 1.166112234240E+01 2.866863329143E+01 -8.009836284343E+03 1.594927215627E+04 2.873471636686E+04 -2.469685080723E+03 1.654812427831E+04 3.038631337689E+04
 -3.048732002220E+01 -4.385728373040E+00 1.574035733845E+01 7.318806598860E+00 1.182500268346E-01 -5.147292903276E+00 -1.312396747198E+01 -2.663357206193E+01 5.903618435331E+00 -9.519661040416E+01 8.662342347555E+01 -1.369630234843E+01 -5.293454148591E+01 1.433706502215E+01 1.293779946276E+01 3.252273401162E+02 -2.963101344821E+02 1.904714681812E+02 -6.251202420048E+02 5.792035291853E+02 -3.952772215173E+02 1.204784024589E+02 -5.820876110369E+00 -1.901813065454E+02 2.933132448128E+02 -2.771752934007E+02 2.247871660623E+02 1.510789222608E+02 -1.709227786577E+02 -2.051050928155E+01 -9.047128188607E+02 -4.101193006447E+02 6.098490999707E+01 -1.145529970393E+01 1.892891343471E+01 2.742799244940E+00 3.728457708102E+01 1.997473255952E+01 5.797493426754E+00 -2.818289118060E+01 -5.175229918847E-01 8.058832311045E+01 -4.552031262309E+00 -9.690958817205E+00 -2.786216662294E+01 7.916834355326E+00 -1.343984262021E+01 -2.816507545254E+01 9.749846180398E+02
 1.604480796155E+01 -6.949456224191E+00 -2.658144504507E+01 1.749607792541E-01 1.376251479817E+01 -2.066124636666E+01 1.402238982234E+01 1.455040603871E+01 1.106315132059E+01 1.688083400919E+01 -1.008434862925E+01 2.796523368049E+00 5.611826094411E+01 -7.866935568562E+00 -9.731425531823E+00 -1.726812408405E+02 1.345140529206E+02 -8.431283457650E+01 2.742519372695E+02 -2.752372320979E+02 1.782335126488E+02 -9.029860111543E+00 7.038940767102E+00 -9.954677760773E+00 -1.281326329252E+02 1.118588820923E+02 -1.016330080181E+02 -1.620734006733E+01 1.315358198794E+01 -4.682415388628E+00 -4.036803729893E+02 -3.166324501801E+02 -1.356698397415E+02 3.348586488949E+00 -1.735008140757E+01 7.025359317784E+00 -1.441874050805E+01 -1.140411652548E+01 -4.544679014772E+00 -4.095234096595E+00 -3.093848983921E+01 2.530683608679E+01 -6.032741783683E+00 5.689098660206E+00 2.982989462037E+01 7.065643286728E+00 1.650837614629E+01 5.480577855336E+01 4.318367033434E+02 1.267880892146E+03
 1.503205630421E+01 4.712882568887E+00 -8.194525235582E+00 -5.950791032309E+00 -1.551052426628E+01 7.288506780676E+01 4.001193639241E+00 1.630894225733E+01 -3.156183449506E+01 9.964578865134E+00 5.062353355247E+00 1.035680028063E-02 1.034186685291E+01 -2.950345481487E+00 -1.004153447323E+01 -5.257931147019E+01 4.489746159015E+01 -2.952901799410E+01 7.814283847364E+01 -7.329241547759E+01 4.202890940688E+01 -2.029698683104E+02 1.450652079737E+01 3.891184180415E+02 -4.050529922916E+01 3.921158488614E+01 -3.368046557392E+01 -2.292968823876E+01 2.162528990329E+01 9.749016999534E+00 6.924364840806E+01 -1.503198057354E+02 -1.081174896605E+03 1.594173866284E+01 -3.454725355835E+01 -5.497507905588E+00 7.759635848077E+00 -9.316732374413E-01 9.017678421411E+00 8.164670006948E+01 1.914068827917E-01 -1.105223287924E+03 5.344027197955E+00 -1.166686211195E+00 1.383688607488E+01 9.675091496455E-01 1.013956510976E+01 -6.138418305380E+00 3.945311595720E+01 6.048735619655E+02 2.131651903989E+03
 2.983887767682E+03 4.522145154644E+02 3.949813826098E+02 2.318396555630E+01 9.186338679139E+00 6.678811065918E+01 -8.441319210602E+00 -1.648074527515E+01 -1.054289089283E+01 -9.423731249850E+01 5.564370591345E+00 2.905485865806E+01 -1.534425768441E+01 -2.764624243619E+00 -5.664696206470E+00 1.260861039507E+01 2.893969913975E+00 5.666950635903E+00 -3.686904822721E+01 2.060212006163E+01 -2.815674239027E+01 6.322591469761E+00 1.251976140803E+01 -4.416018037307E-01 1.503173214377E+01 -2.999806267495E+01 -2.586898388930E+00 -1.885837627735E+01 3.565135390529E+00 -4.674205504463E-02 9.279585834967E+00 -1.160107071571E+01 -1.244364789799E+01 -8.634427007611E+02 3.948181664925E+02 -5.305109108497E+01 9.864927022332E+00 5.673710720434E+00 1.008980068439E+01 -7.687431716647E+00 2.884384033202E+00 1.191695641827E+01 -6.480844783382E+03 3.458491989862E+03 6.690899254774E+03 -7.131195148905E+02 4.300560789788E+03 7.332543065666E+03 -1.233823377061E+01 1.372190272385E+01 5.826908164236E+00 5.142861785566E+03
 -2.862560531923E+03 -4.281083184607E+02 -3.684929382813E+02 -1.070396389792E+02 -1.856631220403E+02 -2.815188243675E+02 2.457243184343E+01 5.144438638579E+00 1.772155374439E+01 -2.035394906674E+01 2.702023086025E+01 2.564098722823E+00 -7.560692247227E+00 2.191446491381E+00 3.043545801852E+01 5.141804538594E+02 -4.963141756131E+02 2.924552633869E+02 -9.329297776392E+02 8.818755234983E+02 -6.060654812129E+02 8.785917413729E+00 -6.960975265508E+00 -3.775049772834E+01 4.459932001164E+02 -4.324694683819E+02 3.100748406757E+02 4.718960378053E+00 1.039368155018E+00 1.718931362453E+01 -2.045364758610E+01 2.537298529171E+01 3.286673388098E+01 4.691533669056E+02 -3.147537294099E+02 -6.814552462678E+01 -3.613077318303E+01 -1.752390727940E+01 -4.033352825303E+01 -2.201614883793E+00 2.045097575722E+00 -1.650178869526E+01 8.459438662949E+03 -1.915034046075E+04 -3.238130230429E+04 3.006568046535E+03 -1.967245999719E+04 -3.261775847396E+04 3.502926155687E+01 -4.291455065474E+01 -1.574532914938E+01 -8.630845084541E+03 3.977112721288E+04
 -5.339149958290E+03 -8.429904113270E+02 -6.978316082105E+02 -2.037113402834E+02 -3.222638260372E+02 -4.554543485219E+02 2.702873455705E+01 1.246794137694E+01 -4.923027748866E+00 -7.568457244242E+00 1.603052385589E+01 -1.488592839658E+01 -3.909153928497E+01 3.605789495135E+01 4.381177413300E+01 1.156057795504E+03 -1.096465131309E+03 6.545123812053E+02 -2.100415209527E+03 1.992594593825E+03 -1.379733783568E+03 3.418238178336E+01 1.529503230858E+00 -5.543067221665E+01 1.009592908193E+03 -9.614881176093E+02 6.926850135294E+02 -1.318202137681E+01 7.010224397694E+00 2.057257859816E+00 -3.128315356968E+01 4.116601105432E+01 4.528077289367E+01 2.232297512741E+01 3.013669632344E+01 -1.121995859912E+02 -3.292219246861E+01 -1.022574522358E+01 -6.560135893580E+01 -6.399360371873E-01 -6.545429907632E+00 -1.482770014976E+01 1.535590449275E+04 -3.174676087846E+04 -5.815103640962E+04 5.134148895534E+03 -3.275715969626E+04 -5.862569633953E+04 4.618485802020E+01 -5.667475505500E+01 -2.199634367828E+01 -1.441821458787E+04 6.560053163694E+04 1.179411698155E+05