#BIOSYM hessian 1
@Type: Hessian Update
@Units
 distance: 	A
 energy: 	Kcal/Mol
#header
@natom 32

#label
C1      C2      C3      C4      C5      C6      C7      C8      C9      C10     C11     C12     C13     C14     C15     C16     C17     C18     C19     C20     C21     C22     C23     C24     C25     C26     C27     C28     C29     C30     C31     C32

#element
Cu Cu Cu Cu Cu Cu Cu Cu Cu Cu Cu Cu Cu Cu Cu Cu Cu Cu Cu Cu C  C  C  C  C  C  C  C  C  C  C  C 

#matrix
96
 1.125436920513E+03
 -5.991387923489E+02 9.892329016889E+02
 -2.231463394224E+01 -3.668863944472E+02 3.260665994472E+02
 1.270400118894E-01 1.361309461383E+01 -4.614737875584E+00 5.005360779315E+02
 -3.979341523238E+00 -1.384319797787E+01 5.334510130304E-01 -6.976054762561E+02 1.355662854219E+03
 -2.319656461812E+00 -7.150569442569E-01 -1.018383569710E+00 -2.440167040710E+02 3.786272057149E+02 6.185257640098E+02
 -1.012992664898E+01 6.597497257875E-01 1.065170740460E+01 -3.719072749372E+00 1.267063011106E+01 -9.001903708996E+00 7.141425067824E+03
 -2.966367234022E+00 -9.033436658223E+00 5.200534380508E+00 -5.978949226006E+00 1.090978555042E+01 -6.727038825317E+00 -1.207359987659E+03 9.939232391212E+02
 -1.777019153495E+00 1.457366186075E+00 -4.482041072045E+00 3.443520074952E+00 -6.679581874839E+00 -8.659826184132E+00 -1.085329527265E+04 2.666514670610E+03 3.020156913546E+04
 -2.107850185939E+01 -1.527950115393E+01 -2.566342669662E+00 -1.944088645091E+01 1.308324476405E+01 7.865114440199E-01 -3.578342221395E+00 5.740131202439E+00 1.650635786007E+00 3.907665385714E+02
 9.723036249081E+00 8.225951415203E+00 9.850523436982E+00 1.040530795125E+00 -7.225406965370E+00 1.395927093140E+01 2.085956149873E+01 4.073755572270E+00 -8.360921162474E+00 1.350068355990E+02 1.930056107376E+03
 -6.238294538604E+00 1.076000044829E+01 1.138031609617E+01 -1.630795405692E+00 1.110956487747E+00 1.352567074920E+00 -2.329108814410E+00 -2.162537140658E+00 -3.843346273827E-01 7.636255696261E+01 -2.067562070618E+02 2.014716382926E+02
 -7.093030480491E+00 1.274934132516E-01 7.105091892312E-01 -6.954233969222E+00 7.179529931910E-01 -4.392995412441E-01 -9.945587707084E+00 -4.311202191295E-01 6.309221245018E-01 -7.580504211802E+00 9.543049714712E-01 2.061722866143E-02 2.202730328910E+02
 -1.013900099315E-01 -6.578191948119E+00 2.397995635479E+00 -9.654497758433E-01 -3.944940572650E+00 -6.401041650079E+00 -1.738367244717E+01 -9.374905594012E+00 4.817300459581E+00 -3.930179196586E+00 -6.350054138614E+00 -9.432240372693E-01 5.193367961579E+00 2.238034858923E+02
 3.794321499849E-01 -4.951823250980E-01 -9.757619710691E+00 -3.482325074636E-01 -2.693598884733E+00 -5.998684045738E+00 1.035159349160E+01 1.541223679323E+00 -9.066794334257E+00 1.959088534662E+00 -4.065494711841E+00 -7.226610972830E+00 -5.716412232333E+01 -1.005849483635E+02 1.209794658859E+03
 -5.571074029278E+00 -2.535302989172E+00 -1.217180110094E+01 1.175542110932E+01 -9.364687103569E-02 1.163151883438E+01 -9.038096490211E+02 3.652062409305E+02 2.997742111073E+02 1.002803879916E+01 -1.090884581011E+01 -5.462321226562E+00 -6.324354195348E+00 6.021688114736E+00 -2.099283590660E+00 3.729491630515E+03
 -1.197404161139E+00 -1.283508267806E+01 -6.816390814877E+00 7.730347470099E+00 4.455819039140E+00 -1.371861807835E+01 3.217181951001E+02 -2.453172938945E+02 1.820893578245E+02 1.165471059924E+01 -2.160855514604E+01 -4.235844923317E+00 1.269045152617E+00 2.689859383580E+00 -4.151443763317E+00 -6.524893250367E+02 3.229472557972E+03
 1.949199434698E+00 4.926766313338E+00 -3.533321801462E+00 1.050638404633E+01 7.484182175094E+00 1.450365775913E+01 2.756181953796E+02 -1.030538201718E+02 -3.703423336990E+02 -7.895265416361E+00 6.896112562568E+00 -1.228708814730E+01 -9.987321136674E-01 -5.578165560953E+00 -3.443993424419E+00 1.694655202283E+03 1.436552738829E+02 3.032718292973E+03
 -6.367499976200E+00 3.573500553571E-02 2.154533857771E+00 -2.504045919926E+00 5.601774088150E+00 -5.441418427110E+00 -2.795941258943E+01 -5.057452466569E+00 1.039232012215E+01 -7.877050092307E+01 2.859724084900E+02 -7.916724809402E+01 -8.775054664002E+00 -9.603159877694E+00 6.357516397768E+00 1.827131459211E+01 1.561236685957E+01 -8.899916469495E+00 7.976438909979E+02
 1.871106644504E+01 5.972940645237E+00 -2.608379342448E-01 -2.502885342132E-01 -1.919754077538E+01 -1.293173740899E+00 3.825907771142E+01 7.325246877236E+00 -6.602429760765E+00 2.446791440382E+02 -9.475196147553E+02 2.399901131570E+02 1.614433275921E+00 3.922971151987E+00 -5.481088223812E+00 -6.448884319879E+00 -2.107951426606E+01 1.668151365432E+01 -6.508643268370E+02 1.304825079988E+03
 8.656519207419E+00 -4.495025981385E-02 2.571322193995E+01 1.834454912751E+00 7.553253201108E+00 -1.698756101690E+01 -3.772676145912E+01 -5.169263824507E+00 9.295054765486E+00 -7.983870378614E+01 2.576884900484E+02 -3.147943458036E+01 -1.639598632015E+00 -9.075775029828E+00 -1.148847561009E+00 3.461349138529E+00 1.719434578174E+01 -1.933053576222E+01 3.512387460460E+02 -4.382647398300E+02 3.013245038474E+02
 -8.454455968874E+00 1.427913085995E+00 7.885904728723E+00 -3.978854103756E+00 6.570722443605E+00 5.957978218315E+00 -2.325361966216E+01 -2.764632050217E+00 1.081900223643E+00 -9.055200720165E+00 1.624881532067E+01 2.459742866706E+00 -7.661549973316E+00 -7.194467179635E+00 1.848046658956E+00 -7.695775388457E+00 2.169713758635E+00 -6.222619034933E+00 -1.869810078830E+01 5.854666502422E+00 -1.039570509172E+01 5.041908635837E+02
 2.306752471968E+00 -8.931769432565E+00 -1.059757954790E+01 -6.035130839446E+00 -1.472446332030E+01 -1.659692791006E+01 8.825320142398E+00 -4.889317766959E+00 3.240653747834E+00 -6.996049081814E-01 -3.332437188479E+01 -5.074479712560E+00 1.936163034811E-01 7.858025727429E-01 2.638747347073E-01 7.450360630754E+00 -4.706004722393E-01 4.507001889131E+00 9.392474257881E+00 -5.304932545007E+00 7.784006930063E+00 -4.619802855197E+02 9.568459820345E+02
 -2.981763521413E-01 -3.371673903393E-01 -8.969319551373E+00 2.905334497475E+00 -3.695866787713E+00 7.455838608628E+00 2.820778361982E+01 3.662884707102E+00 -1.598609544753E+01 6.930229065349E+00 4.273318858398E+00 -4.332778624345E+00 1.448496333831E+00 5.283594638794E+00 -1.256298930806E+01 -1.192687972184E+01 -1.807729890544E+01 1.705155747854E+00 1.465591086161E+01 -1.921483426754E+01 7.072566682733E+00 8.330187905146E+01 -1.270994880216E+02 2.278471292716E+02
 2.868907961219E+01 -1.064347843421E+01 2.771759483425E+01 6.745618849307E+00 -4.858886746211E+00 5.537413788230E+00 -1.793578694708E-01 -2.778754650334E+00 -1.006908684451E+00 -3.876876031866E+00 1.244858744337E+01 -5.366194144345E-01 -6.953424337183E+00 -8.058384784026E-01 -3.290632139708E-01 -1.015798086714E+00 -7.173321087732E+00 2.046431299433E+00 -6.871162182070E+00 8.474308759681E+00 5.094651388572E+00 -4.315425065850E+00 -5.308828612688E+00 2.480705430388E+00 2.712340247882E+02
 -1.334704657480E+01 9.114373852473E+00 -2.649837494728E+01 -1.244724717315E+01 -4.598372002045E+00 -2.071668780622E-01 4.687330416789E+00 2.714924835060E-01 1.167566270802E+00 -3.710423761156E+00 6.583475277039E+00 4.594993826875E+00 6.414907180621E-02 -5.966033353769E+00 -1.321145374081E-01 7.004111708228E-01 -4.516247099907E+00 -1.846607721758E+00 8.280857737650E+00 9.949160685811E+00 1.069999317295E-01 -1.094459479008E+00 -4.099484186426E+00 -2.385654630338E+00 1.358307897235E+02 9.932184606690E+02
 -4.080392100940E+00 -9.719788670193E+00 1.695020440579E+01 -2.111328765201E+00 9.465127128253E+00 -2.397777339215E+01 -5.042076102045E+01 -4.798648034784E+00 1.617425700758E+01 -1.157609617057E+01 1.105389567035E+01 1.004779261825E+01 -2.486723783621E+00 -1.218843222682E+01 2.099792388266E+00 1.447709548113E+01 2.707641588361E+01 -2.359991136799E+01 -3.354688328674E+01 3.766420272556E+01 -1.014945228746E+01 -1.923934791807E+01 1.922576969351E+01 1.010013675567E+01 3.373416601651E+02 1.337947692986E+02 1.268439009085E+03
 -9.165037382111E+02 3.457001729792E+02 1.739473618329E+02 -5.060607599599E+00 -2.092274744086E+00 1.981831029029E+00 -5.801698835481E-02 7.614242811910E-01 -6.858884088909E+00 -8.835939173793E+00 3.544212505768E+00 -2.077477432648E+00 -6.726032804727E+00 1.314056713358E+00 -1.018445360157E+00 -6.817656228949E+00 -3.924405444460E+00 2.044848145481E+00 -1.454790345600E+00 3.466964529257E+00 1.108642166135E+01 -4.770639593536E+00 -2.334976465953E+00 -1.790085515652E+00 -1.014122691871E+02 6.144405338404E+01 -1.944480539630E+02 1.566990089937E+03
 3.372259006444E+02 -7.816319121976E+01 -5.265535635426E+01 -9.369068236417E+00 -1.612159199301E+00 3.370297560423E+00 1.796183537354E+00 -2.695812564974E+00 9.546344795699E-01 1.895756029328E+01 -1.120131872074E+01 2.366931468499E+01 1.091944031452E-01 -7.694034282550E+00 -5.741221127953E-01 -2.970221112455E+00 -5.862785152992E+00 -2.111321705063E+00 -5.011441102087E-01 -2.699069896770E+01 -2.159079448338E+00 3.546642034807E+00 -1.362006102763E+01 2.551546986778E+00 1.046722749364E+02 -1.470565149496E+02 2.655241816199E+02 -9.015684593856E+01 6.477749265790E+02
 1.883950675713E+02 -7.191174940096E+01 -4.277138864746E+01 3.925498170927E+00 -1.156015743750E+01 7.565504764741E+00 5.404189289796E+01 8.717129944780E+00 -1.022196624917E+01 5.862056803249E+00 4.754321408664E-01 1.201009283535E+01 2.550939534938E+00 1.346710802648E+01 -1.620306338089E+01 -1.689510036328E+01 -2.726178248829E+01 1.065922934034E+01 2.961414856808E+01 -2.056378127517E+01 4.296975839857E+01 1.761292730165E+01 -1.518534067056E+01 -2.714240596777E+01 -2.325003604698E+02 2.689369447239E+02 -9.217042209793E+02 -3.696164840300E+02 -5.581049038625E+02 1.459418306974E+03
 -3.811314584205E+00 4.446670698667E+00 -4.257555611519E+00 -2.173590112642E+02 4.405028987917E+02 -7.337014696443E+01 -3.289832996569E+01 -4.478196205002E+00 -2.758463680664E-01 -1.309032486462E+01 -1.406904054249E+01 -4.771414255537E+00 -8.712417849479E+00 -4.785561931072E+00 6.769658726441E+00 1.803792014432E+01 3.268119283857E+01 -4.342700523351E+01 -1.344997872172E+01 2.149348393147E+01 -1.526339334416E+01 -2.814897206330E+01 3.013811324256E+01 2.080585771083E+00 -2.643537758597E+00 -1.926063851219E+00 -1.627206359352E+01 -4.781952830705E+00 -9.148444358338E+00 2.341627468065E+01 9.158700994055E+02
 -7.979196363381E+00 -1.615154345096E+01 9.547716225264E+00 4.881858188838E+02 -8.381823339203E+02 1.196753149936E+02 1.942851610242E-02 8.449675843994E+00 -2.763269293852E+00 1.873931296868E+01 1.073450666103E+01 5.323665134129E+00 1.827191030265E-01 -1.098099613666E+01 -1.361914646915E+00 -6.987027318405E+01 7.947436657049E+00 -5.797223377127E+00 -3.308796099721E+00 -1.631663888818E+01 -2.830370885243E+00 1.214948099351E+01 -3.135535409682E+01 1.186613607947E+01 -3.466573134964E+00 -3.322033515671E+00 -8.593869295811E+00 -1.394122953018E-02 5.048516594801E+00 4.841391950414E+00 -3.484916946080E+02 1.835026115917E+03
 5.842363371150E-01 3.464427382888E+00 -7.689308911363E+00 -1.151705700958E+01 1.255823245672E+02 1.892431649537E+01 1.960091604356E+01 2.158944071555E+00 -1.917300619668E+01 -1.818654619693E+00 -1.114749701162E-02 -1.247323157670E+00 8.957437962201E-01 4.342662570564E+00 -1.028822495278E+01 -6.347160875987E+01 -1.102334335315E+01 -1.562378583563E+01 1.253459902153E+01 -8.889448431739E+00 5.866321409223E+00 7.035365115131E+00 -7.150008113272E+00 -1.303471278455E+01 3.918197036117E+00 -6.356597169197E-01 1.021629959000E+01 -2.560117642506E+00 -1.164668591485E+00 -1.663655969528E+01 -7.448031614016E+01 -8.679065107159E+02 1.360267221975E+03
 -7.456102299714E+00 -1.662211384229E+00 -3.083591068176E+00 -1.458858339519E+01 -2.652805092094E+00 3.361061923821E+00 2.740448821389E+01 -6.628315683761E+01 -3.692424936981E+01 7.728086731273E+00 8.822034894720E+00 -6.499495516374E+00 -7.449440487271E+00 -2.324514240453E+00 1.616320795185E+00 -8.278511535809E+02 -6.119879328743E+01 -6.821379839675E+02 5.784204134302E+00 1.298322225822E+01 -1.206384234933E+01 -1.016297730123E+01 2.820893427558E+00 3.435268062003E+00 6.690179209708E-01 6.057758360966E+00 -7.950044722172E+00 -4.703160868391E+00 9.998552141320E-01 7.072715975940E+00 3.874038275768E+01 -6.949353326943E+00 3.692054713078E+01 9.584737528921E+02
 -3.012650643151E+00 -1.072980275705E+01 5.779681044000E+00 1.433103315685E+01 1.878594172191E+01 -1.778305840834E+01 -1.433385552173E+02 6.726573905374E+01 3.119444435999E+02 3.387912323952E+00 -3.534857030439E+00 -2.695190193434E+00 -8.663056746399E-01 -1.195532360862E+01 3.070560781956E+00 -1.309274352401E+02 -1.079068442403E+03 1.985257501325E+02 -1.387313547485E+01 1.344603303652E+00 -9.211274862587E+00 -5.146099057775E+00 -3.630505749796E+00 7.860531471222E+00 -5.794698013113E+00 -5.401975967616E+00 -1.497368208269E+01 7.806573027443E-01 -3.200944181765E+00 1.416434360253E+01 -8.410673203175E+00 1.230090342297E+01 -8.101521214167E+00 5.177303507636E+02 1.613007667134E+03
 5.231524924803E-01 -5.343216500539E-01 -8.941574130567E+00 -8.762718633642E-01 -1.219222662590E+00 -1.337426875921E+01 -6.635915488843E+01 2.499467227102E+01 2.051951622797E+02 6.320097473049E+00 -5.510848013501E-01 -1.603435916677E+01 1.656580090285E-01 8.416688264435E-01 -7.604795700958E+00 -7.124565486802E+02 1.748708072706E+02 -7.591955240560E+02 6.273944419893E+00 -9.965063436305E-01 -8.835764701782E+00 1.216219618084E+00 -1.140915887471E+00 -8.221978656206E+00 -1.748751057456E+00 -3.953837407545E+00 -6.884169006678E+00 2.023231574622E-01 -2.978684891228E-02 -1.211034311680E+01 4.558842598478E+01 -5.816335874456E+00 2.687045732651E+01 -4.103713575419E+02 -4.288433618861E+02 1.980159345793E+03
 -6.848437496677E+00 -1.594031871376E-01 -8.816160071633E-01 -7.295794265567E+00 -7.598235644786E-01 -4.704546267536E-01 -4.889478844846E+00 3.455576647869E-01 -2.278628178904E-01 -6.694427068120E+00 -1.714409874261E+00 -2.347066231224E-01 -1.024227268980E+01 -5.208068574109E+00 5.737364328213E+01 -7.073609918678E+00 -4.577231143133E-01 7.834649218058E-01 -5.551102407188E+00 -8.723690206818E-01 1.303086401057E+00 -7.211393953867E+00 1.232985956638E+00 -1.715795838739E+00 -7.264406595016E+00 8.973745353213E-02 2.301860007192E+00 -7.267307758060E+00 -3.543440015678E-01 -2.162270242261E+00 -4.677737520279E+00 -1.175503719682E+00 -8.390107875182E-01 -6.616851975414E+00 6.560124334096E-01 -1.472079411631E-01 2.204126628344E+02
 3.262529507741E-01 -6.535727803440E+00 2.709348411905E+00 -3.533997543079E+00 -2.174469112737E+00 -1.787725554847E+01 -3.576758363953E+01 -1.166808894799E+01 1.126035743234E+01 -8.725618857741E+00 -1.182385965724E+01 -3.257761084404E+00 -7.886289311655E+00 -2.454136616416E+01 1.107808641616E+02 1.488182610701E+01 1.565621187284E+01 -1.108002601469E+01 -1.868757756720E+01 1.719533605331E+01 -1.792043200503E+01 -1.888677676038E+01 1.723964155850E+01 6.824234021379E+00 -3.014122115138E+00 -4.056447139509E+00 -2.198606292218E+01 2.308170112181E+00 -1.007785216943E+01 2.572918049951E+01 -3.275051905307E+00 -2.144280230865E+01 7.762352101877E+00 -4.393646028757E+00 -1.698954495965E+01 1.562523090156E+00 8.192608333196E+00 2.186579340247E+02
 -3.957859857699E-01 6.368658890008E-01 -3.444355112229E+00 -7.279786044951E-02 3.772783048493E+00 -1.057620738389E+01 -1.681931528104E+01 -2.415228115855E+00 -3.092303876426E+00 -3.446874560634E+00 4.062033009233E+00 -7.182229197210E+00 5.684116168200E+01 9.915689983212E+01 -9.985111368150E+02 4.439255821833E+00 7.866126192979E+00 -1.262082025089E+01 -9.887641272492E+00 9.614684607653E+00 -1.620305174187E+01 -4.687960103911E+00 2.962170048394E+00 3.618159991743E-01 -2.493302212033E-02 5.502873562922E-01 -2.051633916297E+01 1.491546553647E+00 2.508587003028E-01 7.129208698982E+00 -8.287619480171E+00 -3.681423332463E-01 -2.148201741598E+00 -2.465626561335E+00 -4.905113744723E+00 -6.094105170728E+00 -5.704270558722E+01 -1.131259740486E+02 1.206878644376E+03
 -8.031751637207E+00 9.464362833578E-01 5.215956473735E+00 -4.621083028017E+00 4.131571052574E+00 5.603169625488E+00 -1.523303790020E+01 -1.518589406506E+00 -1.929062168016E-01 -7.691070167133E+00 1.161546869259E+01 1.969267625157E+00 -7.304571921548E+00 -4.394811425941E+00 6.906672660265E-01 -8.722649217379E+00 -3.932576334850E-01 -3.369717837602E+00 -1.351438959885E+01 2.021286915594E+00 -5.678802566574E+00 -2.917860560172E+00 -1.138538814388E+01 9.924881524299E+00 -4.896724854360E+00 -1.001098439287E+00 -1.144252537569E+01 -5.654936149019E+00 2.704098459818E+00 1.000783204033E+01 -2.132233577721E+01 9.589109461939E+00 4.207402156855E+00 -8.816982201397E+00 -2.718024083936E+00 7.089349350129E-01 -7.325038114353E+00 -1.227182407640E+01 -2.454807279404E+00 4.500821371413E+02
 6.707708871262E-01 -7.516933983431E+00 -2.816124682802E+00 -1.924041907424E+00 -8.874520125597E+00 -5.805951707224E+00 2.309045478152E-01 -6.701325448745E+00 1.623849402567E+00 -7.477029434835E-01 -1.472593051921E+01 -1.635842203261E+00 -6.095282250931E-02 -5.238420463432E+00 5.164739624295E-01 3.038891297097E+00 -3.731929196296E+00 5.713020307398E-01 1.468363598982E+00 -4.997441112617E+00 1.063397071454E+00 -5.015705276275E+00 3.178383427735E+00 -5.135251093925E+00 -1.686524889673E+00 -5.998472664131E+00 4.031895794331E+00 -5.125170372171E-01 -9.061865058186E+00 -2.656892006023E+00 8.288178675466E+00 -1.477780957032E+01 -1.525582856613E+00 5.179034823104E-01 -6.682250964275E+00 -2.229998885775E-01 4.823846559174E-01 -7.457141859623E-01 2.448712985778E-01 -1.543683403661E+02 2.344487448115E+02
 -3.695117467438E-01 -1.007239622471E+00 -1.279274016766E+01 5.736050416520E+00 -9.297101629308E+00 2.328841120105E+01 6.444875326587E+01 8.494560639901E+00 -2.674186692893E+01 1.546156680768E+01 6.170845653650E+00 -1.670235063691E+00 3.275786797634E+00 1.286884880672E+01 -1.944659191571E+01 -2.579787793204E+01 -3.971960043978E+01 1.312437116131E+01 3.411004891634E+01 -4.290035894272E+01 2.559529480898E+01 3.236441578403E+01 -4.032695868722E+01 -2.095121441192E+01 4.877465181418E+00 -4.976645633219E+00 3.387584948562E+01 -4.320518159761E+00 4.866462722038E+00 -5.417172705444E+01 8.583977198287E+00 2.346600189551E+01 -2.146824658731E+01 8.075666332483E+00 1.807820665719E+01 -9.887209503352E+00 -3.690334962099E+00 1.846356638307E+01 9.909052688795E+00 3.654634129598E+02 -4.016289444707E+02 1.756229272802E+03
 -7.750208398650E+00 3.539041536723E-02 7.932054010020E-02 -2.909757897791E+00 -2.217661408976E+00 1.776029933858E+01 1.964911593667E+01 3.273076183856E+00 -9.662423117334E+00 1.019293132458E-01 9.406007787146E+00 3.669649695043E+00 -5.583669405763E+00 3.801290115706E+00 -5.642495512499E+00 -2.044195366496E+01 -1.944570429533E+01 7.881457035957E+00 5.911769004880E+00 -1.965124842621E+01 1.264267794816E+01 1.092231933949E+01 -2.581395405242E+01 -1.268083085622E+00 -3.477720902060E+00 -2.962415404793E+00 1.346630234470E+01 -8.349481102546E+00 3.850149317157E+00 -1.730440579299E+01 -1.076014024065E+01 1.665888923707E+01 -4.677845808484E+00 -4.095786096559E+00 7.249746387879E+00 -1.004671932750E+00 -8.967301753566E+00 2.156892791840E+00 6.830488073583E+00 -1.044554782352E+01 -5.011951021045E+01 1.469743483850E+02 1.817129035571E+03
 -1.045988432342E+00 -6.295943485157E+00 3.849439260978E+00 3.345530544368E+00 -4.846151449698E+00 1.105380059424E+01 4.407209520723E+00 -6.833155715224E+00 -3.923398998520E+00 2.276987482967E+00 5.182381528253E+00 2.878038915153E+00 3.344027803647E-01 -8.731961714864E+00 -1.703042902781E+00 -6.519719932282E+00 -1.490220014821E+01 6.182192375882E-01 2.881272654061E-01 -1.321506630587E+01 7.915252558795E-01 1.000670638552E+01 -2.544182989572E+01 6.769236052997E+00 2.921425507032E+00 -8.895091530476E+00 -3.105470166707E+00 4.594075871809E-01 -3.516011991221E+00 5.528332936229E-01 -1.195367048039E+01 6.537974739184E+00 1.249011028017E+00 -1.903666697780E-01 -6.154617930907E+00 1.257219854924E-01 -1.005041163200E+00 -1.514207342739E+01 8.766055102087E-01 -4.085592372745E+01 -6.537863571070E+01 1.596006074636E+02 4.622784011513E+01 5.208977548337E+02
 1.905493949754E+00 -6.858627154072E-01 -1.059327419911E+01 -8.274228794348E+00 8.856510233411E-01 -3.976785522242E+01 -3.812853701199E+01 -4.345576316588E+00 8.928473612443E+00 -1.116291148703E+01 -2.309086065913E+01 -1.431109401312E+01 -2.120430942867E+00 -3.301047369485E+00 1.767517412374E+00 2.312156732212E+01 3.206484173115E+01 -1.765707215232E+01 -1.680114310834E+01 3.079891167925E+01 -2.391203350738E+01 -3.202704129737E+01 4.977377936157E+01 -1.151403706529E+01 -7.162417651343E+00 5.509350459561E+00 -2.143473635912E+01 1.308550285735E+00 -8.091237349669E+00 1.465870651163E+01 1.564689711579E+01 -3.360858589567E+01 -2.143619215400E+00 -3.550382301209E+00 -1.005366324148E+01 -5.829873145593E+00 3.427159119222E+00 4.614970687111E+00 -1.654525055196E+01 1.239860326520E+02 2.164465812309E+02 -1.025740051931E+03 -4.280255198173E+02 -4.679237379041E+02 2.034109849276E+03
 -1.518693758232E+01 -2.472491410086E+00 7.513549458523E+00 -1.242322110337E+01 -5.667415151714E+00 -3.088356614553E+00 2.010351626089E+01 9.173702934593E+00 -2.184532372812E+01 1.159481166032E+01 5.073139801437E+00 1.492035799903E+01 -6.826436816854E+00 9.700086656721E-01 -6.298688729525E-01 7.888614067844E-01 -2.564480111904E+01 8.450877570952E+00 9.621961648668E+00 1.488300337102E+00 1.012813467002E+01 -5.873607052180E+00 -8.617870669304E-01 -1.498220490466E+00 -2.932950206593E+00 9.877779469622E+00 1.682120732010E+01 -1.178074253905E+01 4.786967849020E+00 1.190939630356E+01 -6.549985962638E-02 2.311641424377E-01 -5.829977364518E+00 1.160310026866E+02 5.763646140995E+01 1.218171339598E+01 -7.143793873897E+00 1.908238505828E+00 9.872681633946E-01 -6.382718420075E+00 -1.225122932382E-01 -3.474168185407E+00 -8.341931037514E+00 -7.041702843587E-02 1.779101188717E+00 1.736773296333E+02
 1.720721808445E+00 -3.165913259586E+00 2.527869399502E+00 2.052608660396E+01 1.496509011057E+01 2.773511037341E+01 -1.474396526974E+01 -1.270152240635E+00 2.468259218816E-01 -8.930790013002E+00 1.320093360825E+00 5.003780988978E-01 -4.215297964678E-01 -9.595528605688E+00 1.468061074740E+00 -3.712180511544E+01 2.166807802537E+01 -2.198706443047E+01 -8.909086852480E+00 4.361711857489E+00 -3.705330919430E+00 -2.100924751662E+00 -6.223111629028E+00 4.317504061502E+00 2.402053398174E+00 -3.807973836004E+00 -6.691610088730E+00 1.549761472786E+00 -7.210135857422E+00 8.304742178591E+00 5.617107227905E+00 8.401396889929E+00 1.995893231911E+01 1.168737891702E+02 2.166255663179E+02 1.353670776699E+01 2.814201302409E-01 -1.246491833533E+01 -2.437849041678E+00 -9.940849174260E-01 -7.127544998471E+00 9.790366443965E+00 4.190220049000E+00 -6.090187881917E+00 -6.193606708562E+00 8.361494749180E+01 3.438987750997E+02
 1.500555669755E-01 -4.788536700151E-01 -7.508096443635E+00 -3.405335026049E+00 -5.033910622962E-02 -2.611948160672E+01 -1.336548034148E+01 1.234194458650E+00 2.124383909141E+01 1.269891855862E+00 -7.863841234879E+00 -1.572206936376E+01 -7.776428658364E-01 -1.447440781318E+00 -3.819968151646E+00 8.533016875882E+00 1.986340952134E+01 1.270926415290E+01 -2.583913496256E+00 1.184954678444E+01 -1.479539170945E+01 -1.122389144691E+01 1.713930221173E+01 -8.019515868307E+00 -4.811056873325E+00 -1.124346074268E+00 -1.315090281243E+01 1.493304365433E-01 -2.392039826068E+00 1.133807636438E+00 4.023713397650E+00 -1.187880941470E+01 -2.897332037969E+00 1.481503974861E+01 2.492620429273E+01 3.990609843647E+01 1.207971202873E+00 9.123532855741E-01 -1.056841655780E+01 -7.821660429478E+00 4.888489229210E+00 -7.058314540331E+00 -4.349181487101E+00 -7.428329262045E+00 5.300384665590E+00 5.817395503390E+00 -1.010080618320E+02 1.149271992518E+03
 -4.284845411608E+01 2.727417903565E+02 -1.369660703411E+02 -2.349625231755E+01 6.523850212121E+00 -2.488491050971E+00 -1.035563165055E+01 3.020001523740E+00 -3.085284442102E+00 1.048128736055E+01 -1.706680993907E+01 7.246304672969E+00 -7.043175629874E+00 2.843572171757E-01 2.170486634556E-01 -8.011892808946E+00 6.814660079457E+00 -3.098931668034E+00 -8.209613041452E+00 -1.727038362271E+01 1.009104827600E+01 -8.380174475076E+00 2.586777341581E+00 -1.021741365356E+00 3.991505840002E+01 -5.416931240623E-01 -1.073451992040E+01 -3.810271362745E+02 -3.333122074876E+02 3.959259041676E+02 -1.353352743722E+01 7.984380937520E+00 -6.508622879960E+00 -8.517349250577E+00 6.124916533747E+00 2.584136134618E+00 -6.865392250840E+00 1.232799020320E+00 -8.537359832194E-02 -8.056128989601E+00 8.068945719844E-01 -1.956922704287E+00 -8.532150205486E+00 -1.369911034197E+00 3.200553067801E+00 -1.480286019533E+01 -2.514665709401E+00 2.737285748151E+00 6.006241563155E+02
 2.767817422530E+02 -7.431705902025E+02 3.918968056484E+02 7.914031000254E+00 -1.127717498632E+01 -5.668046428301E-01 3.724438699687E+00 -8.211451572892E+00 9.804288503553E-01 1.750177133427E+00 -9.878705819626E+00 2.095870515110E+01 3.069754151731E-01 -5.480135054783E+00 -1.121111531431E+00 -3.992305225525E+00 -1.163376290125E+01 4.906775109963E+00 1.001111703369E+00 -1.908428346608E+01 7.430067814383E-01 2.335588524277E+00 -9.291737129732E+00 -2.159457950290E+00 -2.012357743431E+01 5.049692610534E+01 -2.116005910820E+00 -3.217047394552E+02 -2.737787264796E+02 3.137491690780E+02 4.540567543688E+00 -1.135876242008E+01 -1.519190436767E-01 -2.604582597508E+00 -6.216598414312E+00 1.356420164989E+00 -2.804589417513E-01 -4.229595220422E+00 1.673206415759E+00 1.380403031508E+00 -7.472898533053E+00 -5.143483579712E+00 -1.727170069923E+00 -6.668176301650E+00 1.908900137012E+00 -3.640232747758E+00 -5.494654227321E+00 2.568568885203E+00 6.626215675388E+01 1.182584180708E+03
 -1.490037462909E+02 4.171910922745E+02 -2.228438354244E+02 1.222904405691E+00 2.571717613926E+00 -1.077296560153E+01 -1.315309355491E+01 -1.625044935272E+00 3.978400244714E+00 -3.197673013097E+00 7.925131815190E-01 1.725879248141E+01 -4.510827806940E-01 -2.843196453195E+00 -5.441403769320E+00 -2.983114645197E+00 5.278372036353E+00 -9.365323462960E+00 -1.101329433727E+01 1.786536463837E+00 1.084317298454E+01 -2.097272124381E+00 5.116464706934E-01 -2.197937254721E+00 7.835849677698E+00 2.795198036611E+01 1.063226113226E+01 4.096390459358E+02 3.178658143742E+02 -4.302711268976E+02 -6.051885292478E+00 4.302246607263E-01 -1.332837983877E+00 -7.820861446481E+00 -1.484058804333E+00 -5.777541457860E+00 2.870005953583E-01 -6.070971392874E+00 -9.630545178183E+00 -9.407770245106E-01 -2.388114019217E-01 3.846278870561E+00 4.732128624162E+00 1.163601073161E+00 -1.411792599360E+01 6.871398644186E+00 -2.620090668096E+00 -7.164403374328E+00 -2.458958426176E+02 -7.524732521316E+02 6.982909818293E+02
 -7.549198556076E+00 4.861915058842E-01 2.676556154273E+00 -5.678179215322E+00 2.062556799929E+00 3.321294302266E+00 -1.055032157835E+01 -6.960800326203E-01 -3.427519035022E-01 -7.176356375186E+00 6.193359403345E+00 1.102375074436E+00 -7.121653210673E+00 -2.157573234819E+00 2.117578066986E-01 -8.223749085980E+00 -6.923713565934E-01 -1.528976943801E+00 -1.001573017037E+01 5.405330306649E-01 -2.592840333512E+00 -4.455768071903E+00 -6.489445919198E+00 5.057120704822E+00 -5.833851265705E+00 -5.880853707307E-01 -5.527485007955E+00 -6.345576227790E+00 1.483724844554E+00 4.694969336293E+00 -1.444008829079E+01 5.337345878481E+00 2.039356153402E+00 -7.859615131649E+00 -1.210753443761E+00 3.381628317480E-01 -7.217535355550E+00 -6.238118643206E+00 -1.086365568357E+00 1.865956750377E+01 -1.235087174526E+01 -2.720320788202E+00 3.058443132659E+01 5.220714423159E+00 -1.910441827576E+01 -6.718566211535E+00 -4.039884090663E-01 -4.120419497304E+00 -7.581431114196E+00 6.642348298671E-01 -3.629786829549E-01 1.311355024355E+03
 -6.458379367238E-01 -6.505701227486E+00 2.721513665670E+00 1.846112570092E+00 -5.186185539095E+00 5.552993650080E+00 -3.108632243777E-01 -7.304637286283E+00 -1.537651593897E+00 6.992754366949E-01 4.309357022484E-01 1.568961178362E+00 5.424170425268E-02 -8.720267872498E+00 -4.806042469723E-01 -2.892857194676E+00 -1.009979464958E+01 -5.780945129597E-01 -1.461661790307E+00 -8.876005485223E+00 -1.069368941347E+00 4.788681427237E+00 -1.675763359452E+01 4.967374723492E+00 1.618422024684E+00 -7.963424822752E+00 -3.941122628513E+00 4.997775488771E-01 -5.025082803455E+00 2.624815145565E+00 -7.998132074589E+00 4.572117876266E-01 1.489862452724E+00 -5.101166128405E-01 -7.336157519832E+00 2.188343790592E-01 -4.597585863773E-01 -1.305704206957E+01 -2.591422496839E-01 2.487196583976E+00 -5.519211606855E+01 -1.176940800551E+01 4.437963734995E+00 2.217416396329E+01 -1.015178765410E+01 1.228144844908E-01 -6.895715345914E+00 -4.710397231335E+00 -7.748281058117E-01 -6.542461818244E+00 2.152398184441E-01 4.532874835331E+02 4.596876242580E+02
 2.159804692125E-01 -2.361662196711E-01 -8.310853568128E+00 -3.638148742637E-01 -1.167501048628E+00 -7.390589833537E+00 3.605540648480E+00 5.706039992375E-01 -7.510262867609E+00 5.822062306587E-01 -2.382021920754E+00 -7.287052690683E+00 1.576668865621E-01 1.324908416073E+00 -7.501257058472E+00 -3.406697352025E-01 -1.020320244160E+00 -5.700880929849E+00 2.382260254605E+00 -1.639854707893E+00 -4.845663760121E+00 3.686541991092E-03 1.379670865725E+00 -9.573573498111E+00 -3.271321313419E-01 8.144392428647E-02 -3.347616430893E+00 -4.167212405174E-01 -4.589644785753E-01 -1.051750351502E+01 3.387761801347E+00 -1.454542082879E+00 -8.330839195348E+00 6.239597793401E-01 1.101380672093E+00 -7.238901064215E+00 -3.194437543122E-02 3.212778311718E+00 -5.991643591006E+00 -2.008714954262E+01 -7.007918968630E+00 -3.213501606179E+01 1.271404431885E+01 5.629970441846E+00 -7.975209517991E+00 -2.331151766453E-01 4.913852860160E-01 -5.284393226369E+00 1.771072054127E-01 -4.468420956700E-01 -6.493483286295E+00 -6.530911201867E+02 -4.473071065331E+02 7.169661091814E+02